Structure file for LAMMPS generated by a MolSSI flowchart
      2 atoms
         1 atom types
0.0 39.21484220529687 xlo xhi
0.0 39.21484220529687 ylo yhi
0.0 39.21484220529687 zlo zhi

Atoms

     1      1      1  0.000    10.0 0.0 0.0 
     2      1      1  0.000     1.0 0.0 0.0 

Masses

     1 39.94400 # ar

Pair Coeffs

     1 0.2 3.88 # ar --> ar
