Structure file for LAMMPS generated by a MolSSI flowchart
       902 atoms
         4 atom types
       600 bonds
         1 bond types
       300 angles
         1 angle types
0.0 20.855719156004138 xlo xhi
0.0 20.855719156004138 ylo yhi
0.0 20.855719156004138 zlo zhi

Atoms

     1      1      1  1.000   11.3930000   10.8920000   10.9730000
     2      1      2 -1.000    9.4630000    9.9630000    9.8820000
     3      1      3 -0.848   12.5860000   10.7810000   19.1760000
     4      1      4  0.424   13.3340000   10.1920000   18.8730000
     5      1      4  0.424   11.8740000   10.2240000   19.6020000
     6      1      3 -0.848   17.7270000   18.6130000   14.8260000
     7      1      4  0.424   17.5040000   19.0390000   15.7030000
     8      1      4  0.424   16.9730000   18.7560000   14.1850000
     9      1      3 -0.848   11.6920000   17.7070000   19.5400000
    10      1      4  0.424   10.7960000   17.7340000   19.1000000
    11      1      4  0.424   12.2260000   16.9510000   19.1640000
    12      1      3 -0.848   14.6360000   15.4370000   11.6700000
    13      1      4  0.424   14.5620000   16.3170000   12.1380000
    14      1      4  0.424   14.4700000   14.6980000   12.3220000
    15      1      3 -0.848   15.9610000   11.4670000    2.4640000
    16      1      4  0.424   16.5630000   10.9540000    1.8530000
    17      1      4  0.424   15.1510000   11.7650000    1.9600000
    18      1      3 -0.848    2.5340000    1.7880000   14.4160000
    19      1      4  0.424    2.5090000    2.6460000   14.9280000
    20      1      4  0.424    2.5960000    1.0210000   15.0540000
    21      1      3 -0.848   19.2710000   13.0600000   16.8410000
    22      1      4  0.424   19.8570000   12.2560000   16.9350000
    23      1      4  0.424   19.7470000   13.8620000   17.2010000
    24      1      3 -0.848   12.2830000   16.5250000   11.9170000
    25      1      4  0.424   12.6410000   17.1640000   11.2360000
    26      1      4  0.424   12.3670000   16.9270000   12.8280000
    27      1      3 -0.848    6.2740000   17.3870000    3.7950000
    28      1      4  0.424    6.2910000   18.2080000    3.2270000
    29      1      4  0.424    6.0800000   16.5900000    3.2230000
    30      1      3 -0.848   19.2420000    9.6790000    5.6630000
    31      1      4  0.424   19.7930000    8.8710000    5.8690000
    32      1      4  0.424   19.0460000    9.7080000    4.6840000
    33      1      3 -0.848    9.3730000   13.0630000   13.7250000
    34      1      4  0.424    8.4390000   13.1230000   13.3740000
    35      1      4  0.424    9.3490000   12.8280000   14.6960000
    36      1      3 -0.848    4.2400000    9.1550000   19.2460000
    37      1      4  0.424    4.8400000    9.6730000   19.8560000
    38      1      4  0.424    3.4020000    8.9100000   19.7320000
    39      1      3 -0.848   15.9720000   16.0480000   15.7080000
    40      1      4  0.424   16.1750000   16.1240000   16.6840000
    41      1      4  0.424   15.8600000   15.0850000   15.4650000
    42      1      3 -0.848    2.7730000   11.8800000   12.7840000
    43      1      4  0.424    2.7040000   12.8730000   12.6960000
    44      1      4  0.424    2.9040000   11.4740000   11.8800000
    45      1      3 -0.848   15.7130000    9.4740000   13.6300000
    46      1      4  0.424   16.0630000   10.3060000   13.1980000
    47      1      4  0.424   14.8550000    9.2080000   13.1920000
    48      1      3 -0.848   15.3380000   16.8560000    9.2530000
    49      1      4  0.424   15.9590000   17.1970000    9.9570000
    50      1      4  0.424   14.5390000   16.4400000    9.6860000
    51      1      3 -0.848    4.6690000    5.6990000   13.3560000
    52      1      4  0.424    4.9890000    5.4340000   12.4470000
    53      1      4  0.424    4.0200000    6.4550000   13.2740000
    54      1      3 -0.848    5.5250000   19.3640000   14.2790000
    55      1      4  0.424    5.2220000   19.8490000   13.4600000
    56      1      4  0.424    6.4030000   18.9210000   14.0990000
    57      1      3 -0.848    3.3190000    6.1970000    8.3540000
    58      1      4  0.424    3.3380000    5.6910000    7.4920000
    59      1      4  0.424    4.2530000    6.3140000    8.6920000
    60      1      3 -0.848    5.6690000    9.1530000   15.5250000
    61      1      4  0.424    4.6910000    8.9510000   15.5300000
    62      1      4  0.424    6.1860000    8.2980000   15.5520000
    63      1      3 -0.848    7.5710000    1.3340000    9.8860000
    64      1      4  0.424    7.8960000    2.2790000    9.8470000
    65      1      4  0.424    7.4020000    1.0010000    8.9600000
    66      1      3 -0.848   14.3170000   11.0080000   16.1020000
    67      1      4  0.424   14.1110000   10.1670000   16.6000000
    68      1      4  0.424   14.6080000   11.7140000   16.7470000
    69      1      3 -0.848   12.2790000   19.7540000   17.5530000
    70      1      4  0.424   12.7070000   19.1260000   18.2020000
    71      1      4  0.424   11.3100000   19.8530000   17.7760000
    72      1      3 -0.848    2.6640000   11.4090000    6.5540000
    73      1      4  0.424    3.1170000   12.2200000    6.9220000
    74      1      4  0.424    1.8590000   11.6860000    6.0290000
    75      1      3 -0.848   19.0230000    4.1340000   17.6620000
    76      1      4  0.424   18.3300000    4.8430000   17.5390000
    77      1      4  0.424   19.9290000    4.5560000   17.6900000
    78      1      3 -0.848   15.6590000    6.6090000    1.1840000
    79      1      4  0.424   15.2110000    7.1020000    1.9290000
    80      1      4  0.424   16.5510000    7.0220000    1.0000000
    81      1      3 -0.848    2.2110000   14.5230000    6.4010000
    82      1      4  0.424    1.9520000   15.3990000    5.9960000
    83      1      4  0.424    2.2670000   13.8280000    5.6840000
    84      1      3 -0.848   15.3580000    8.6820000   11.1180000
    85      1      4  0.424   15.9920000    9.4520000   11.0540000
    86      1      4  0.424   14.4190000    9.0160000   11.0450000
    87      1      3 -0.848   17.7420000   10.1210000    9.3600000
    88      1      4  0.424   18.4970000    9.8850000    8.7490000
    89      1      4  0.424   17.6920000   11.1140000    9.4590000
    90      1      3 -0.848    5.5980000    4.7630000   16.7670000
    91      1      4  0.424    5.6300000    3.8840000   17.2410000
    92      1      4  0.424    6.2480000    5.3940000   17.1900000
    93      1      3 -0.848    3.8720000    3.9460000   11.2650000
    94      1      4  0.424    3.4940000    4.1780000   10.3690000
    95      1      4  0.424    3.3710000    3.1700000   11.6470000
    96      1      3 -0.848    7.4580000   14.9140000   14.6600000
    97      1      4  0.424    7.9050000   14.3430000   15.3470000
    98      1      4  0.424    8.1320000   15.2140000   13.9860000
    99      1      3 -0.848   11.4140000    5.9020000   10.2980000
   100      1      4  0.424   10.4250000    5.9990000   10.4030000
   101      1      4  0.424   11.7780000    5.3640000   11.0580000
   102      1      3 -0.848    1.5810000   17.4990000    7.3330000
   103      1      4  0.424    2.5250000   17.4390000    7.0110000
   104      1      4  0.424    1.0000000   17.8480000    6.5990000
   105      1      3 -0.848    9.5390000    2.0430000   13.9980000
   106      1      4  0.424   10.1950000    1.3270000   13.7600000
   107      1      4  0.424    8.6270000    1.6430000   14.0820000
   108      1      3 -0.848    7.4280000    8.0760000    5.3870000
   109      1      4  0.424    7.5390000    8.0430000    4.3940000
   110      1      4  0.424    7.3160000    9.0250000    5.6780000
   111      1      3 -0.848    4.2680000    9.3320000    1.5920000
   112      1      4  0.424    4.7780000    9.9590000    1.0040000
   113      1      4  0.424    3.7520000    8.6900000    1.0260000
   114      1      3 -0.848   18.8230000    9.6270000   18.5540000
   115      1      4  0.424   18.1890000    9.8290000   17.8070000
   116      1      4  0.424   19.7620000    9.7580000   18.2380000
   117      1      3 -0.848    4.3970000    1.4130000    9.3100000
   118      1      4  0.424    4.3470000    2.4090000    9.3790000
   119      1      4  0.424    4.7150000    1.0350000   10.1790000
   120      1      3 -0.848    5.3710000   19.1520000    8.9910000
   121      1      4  0.424    6.2380000   18.9460000    8.5390000
   122      1      4  0.424    4.6340000   18.6440000    8.5460000
   123      1      3 -0.848   17.5920000    4.8090000   13.5470000
   124      1      4  0.424   17.9670000    5.3450000   12.7910000
   125      1      4  0.424   16.8730000    4.2060000   13.2020000
   126      1      3 -0.848    6.6500000   12.0500000   17.3410000
   127      1      4  0.424    6.0200000   12.1460000   18.1110000
   128      1      4  0.424    6.1340000   12.0620000   16.4850000
   129      1      3 -0.848   12.5130000    1.3820000    0.9090000
   130      1      4  0.424   11.6970000    1.9530000    0.9870000
   131      1      4  0.424   12.7090000    0.9570000    1.7920000
   132      1      3 -0.848   16.9140000    5.9400000    2.8650000
   133      1      4  0.424   17.7770000    5.4650000    3.0330000
   134      1      4  0.424   16.5020000    6.2000000    3.7370000
   135      1      3 -0.848   14.6730000    1.6960000    1.1540000
   136      1      4  0.424   14.3280000    2.6210000    1.0010000
   137      1      4  0.424   15.6620000    1.6800000    1.0110000
   138      1      3 -0.848   12.3810000    3.8830000   17.2370000
   139      1      4  0.424   12.6890000    3.4300000   16.4020000
   140      1      4  0.424   11.3830000    3.8410000   17.2890000
   141      1      3 -0.848   13.6030000    4.6550000    6.7100000
   142      1      4  0.424   14.3630000    4.3190000    7.2650000
   143      1      4  0.424   12.8240000    4.0350000    6.8030000
   144      1      3 -0.848    6.2360000    7.5920000    7.1710000
   145      1      4  0.424    7.0590000    7.0370000    7.2900000
   146      1      4  0.424    5.8030000    7.7400000    8.0590000
   147      1      3 -0.848   16.3000000    0.9930000    4.7610000
   148      1      4  0.424   15.6560000    0.9990000    5.5260000
   149      1      4  0.424   15.7940000    1.0050000    3.9000000
   150      1      3 -0.848   18.8280000    1.5530000    6.6920000
   151      1      4  0.424   18.2050000    1.0120000    6.1280000
   152      1      4  0.424   19.2640000    2.2550000    6.1280000
   153      1      3 -0.848    4.3140000    9.0420000    9.0200000
   154      1      4  0.424    4.9700000    8.8670000    9.7530000
   155      1      4  0.424    3.3890000    8.8610000    9.3520000
   156      1      3 -0.848   18.1480000    5.1330000   19.8960000
   157      1      4  0.424   17.6280000    4.3570000   19.5420000
   158      1      4  0.424   19.1160000    5.0150000   19.6740000
   159      1      3 -0.848    6.2040000   19.2080000    6.0440000
   160      1      4  0.424    5.2550000   19.3470000    6.3250000
   161      1      4  0.424    6.7930000   19.8560000    6.5260000
   162      1      3 -0.848   17.7040000   14.0040000    5.1850000
   163      1      4  0.424   18.4740000   13.7190000    5.7550000
   164      1      4  0.424   17.3430000   14.8730000    5.5220000
   165      1      3 -0.848    4.9620000   11.3240000    5.6790000
   166      1      4  0.424    5.2590000   12.0220000    6.3300000
   167      1      4  0.424    5.7420000   10.7550000    5.4210000
   168      1      3 -0.848   10.0360000    3.7670000   12.6550000
   169      1      4  0.424    9.9890000    4.3610000   11.8530000
   170      1      4  0.424   10.7940000    3.1240000   12.5500000
   171      1      3 -0.848   10.9580000    1.4810000    3.0030000
   172      1      4  0.424   10.6850000    0.9490000    3.8040000
   173      1      4  0.424   11.6310000    2.1680000    3.2740000
   174      1      3 -0.848   16.1480000    5.6270000    7.4300000
   175      1      4  0.424   15.5170000    5.9870000    8.1160000
   176      1      4  0.424   17.0230000    5.4130000    7.8620000
   177      1      3 -0.848    9.5650000   15.9620000    6.4760000
   178      1      4  0.424    8.9090000   15.5930000    7.1330000
   179      1      4  0.424    9.7730000   16.9110000    6.7110000
   180      1      3 -0.848    8.2260000   17.4060000    8.6880000
   181      1      4  0.424    8.4190000   16.5750000    9.2100000
   182      1      4  0.424    7.6170000   17.1860000    7.9270000
   183      1      3 -0.848    5.3600000   12.9170000   13.0710000
   184      1      4  0.424    4.6460000   12.8810000   13.7700000
   185      1      4  0.424    6.2470000   13.0590000   13.5090000
   186      1      3 -0.848    5.6180000    0.9970000   15.6360000
   187      1      4  0.424    6.2080000    1.0270000   14.8290000
   188      1      4  0.424    5.0320000    1.8070000   15.6500000
   189      1      3 -0.848    4.7090000    6.4570000    5.9500000
   190      1      4  0.424    5.4390000    6.7170000    5.3190000
   191      1      4  0.424    3.8510000    6.3600000    5.4460000
   192      1      3 -0.848    4.5850000   16.7470000   11.7920000
   193      1      4  0.424    4.6250000   16.0910000   12.5460000
   194      1      4  0.424    4.6580000   17.6760000   12.1550000
   195      1      3 -0.848   16.6200000   14.0020000   17.3230000
   196      1      4  0.424   17.4920000   14.4510000   17.5130000
   197      1      4  0.424   16.7750000   13.0280000   17.1640000
   198      1      3 -0.848    3.7590000   14.1940000   10.7620000
   199      1      4  0.424    3.3150000   13.3260000   10.5420000
   200      1      4  0.424    4.1840000   14.1320000   11.6640000
   201      1      3 -0.848    8.3850000    1.1980000    1.8640000
   202      1      4  0.424    8.0520000    1.5750000    1.0000000
   203      1      4  0.424    7.8530000    1.5790000    2.6200000
   204      1      3 -0.848    8.7630000    9.9540000    1.0730000
   205      1      4  0.424    9.5190000   10.6010000    0.9870000
   206      1      4  0.424    8.0530000   10.3480000    1.6560000
   207      1      3 -0.848    1.2930000    8.0470000    1.6840000
   208      1      4  0.424    1.8890000    7.6550000    2.3840000
   209      1      4  0.424    1.0000000    8.9590000    1.9700000
   210      1      3 -0.848   12.5940000    5.3910000    8.5180000
   211      1      4  0.424   13.2730000    6.1000000    8.3320000
   212      1      4  0.424   11.7720000    5.5680000    7.9780000
   213      1      3 -0.848    7.6660000    1.0260000    5.1520000
   214      1      4  0.424    8.3090000    1.5560000    5.7020000
   215      1      4  0.424    6.7460000    1.1180000    5.5330000
   216      1      3 -0.848   13.1800000   11.8390000    8.8290000
   217      1      4  0.424   12.6730000   12.6900000    8.6950000
   218      1      4  0.424   13.8050000   11.6990000    8.0620000
   219      1      3 -0.848   19.4770000   15.0340000    8.5590000
   220      1      4  0.424   19.1020000   14.3160000    9.1450000
   221      1      4  0.424   19.8560000   15.7640000    9.1270000
   222      1      3 -0.848    8.8380000    5.3430000    1.0690000
   223      1      4  0.424    9.4720000    6.1120000    0.9980000
   224      1      4  0.424    8.9660000    4.8860000    1.9480000
   225      1      3 -0.848    7.5840000   18.6820000   17.6960000
   226      1      4  0.424    8.3290000   19.0160000   18.2720000
   227      1      4  0.424    6.7110000   18.8370000   18.1560000
   228      1      3 -0.848    1.6280000   18.7240000   13.6110000
   229      1      4  0.424    1.0120000   18.2840000   12.9590000
   230      1      4  0.424    2.5650000   18.6780000   13.2660000
   231      1      3 -0.848    5.0380000   13.5220000    9.1040000
   232      1      4  0.424    5.1060000   13.2580000    8.1420000
   233      1      4  0.424    5.7320000   13.0360000    9.6330000
   234      1      3 -0.848    7.5650000   17.2220000    1.7280000
   235      1      4  0.424    7.5640000   18.1410000    1.3340000
   236      1      4  0.424    7.4990000   16.5450000    0.9960000
   237      1      3 -0.848   10.5870000    1.8120000   10.7970000
   238      1      4  0.424   10.2900000    0.9810000   10.3270000
   239      1      4  0.424    9.9430000    2.5510000   10.6040000
   240      1      3 -0.848   17.1110000   11.2810000    7.3280000
   241      1      4  0.424   17.6430000   12.1270000    7.2990000
   242      1      4  0.424   16.3230000   11.3620000    6.7190000
   243      1      3 -0.848    5.2130000    3.2470000   13.3620000
   244      1      4  0.424    6.0730000    2.9530000   13.7750000
   245      1      4  0.424    4.6130000    3.6190000   14.0700000
   246      1      3 -0.848   16.9390000    8.0230000    6.7430000
   247      1      4  0.424   17.7210000    8.1630000    6.1360000
   248      1      4  0.424   16.0990000    7.9880000    6.2020000
   249      1      3 -0.848    1.3070000    4.2320000   10.6400000
   250      1      4  0.424    1.0150000    4.5930000    9.7540000
   251      1      4  0.424    1.2330000    4.9490000   11.3320000
   252      1      3 -0.848    2.4340000   14.7210000    9.0870000
   253      1      4  0.424    2.0130000   13.8520000    8.8280000
   254      1      4  0.424    3.1310000   14.9660000    8.4140000
   255      1      3 -0.848   18.2270000    7.5270000    8.9020000
   256      1      4  0.424   17.2430000    7.3730000    8.8210000
   257      1      4  0.424   18.6510000    7.4500000    8.0000000
   258      1      3 -0.848   18.1970000    2.4720000    1.0040000
   259      1      4  0.424   17.8480000    3.2490000    1.5270000
   260      1      4  0.424   18.5600000    1.7840000    1.6310000
   261      1      3 -0.848    6.6040000    8.7360000    1.2840000
   262      1      4  0.424    6.4880000    8.9260000    2.2590000
   263      1      4  0.424    5.9470000    8.0390000    1.0000000
   264      1      3 -0.848    7.6080000   11.4000000   19.5240000
   265      1      4  0.424    8.3660000   10.8390000   19.8560000
   266      1      4  0.424    7.9670000   12.2500000   19.1390000
   267      1      3 -0.848   15.6990000    3.7330000   15.7170000
   268      1      4  0.424   14.9630000    3.2860000   16.2230000
   269      1      4  0.424   15.9450000    3.1750000   14.9250000
   270      1      3 -0.848    7.7730000   12.9270000    7.6730000
   271      1      4  0.424    8.2860000   13.5570000    8.2540000
   272      1      4  0.424    7.2640000   12.2850000    8.2450000
   273      1      3 -0.848    5.8440000   15.5200000    8.6790000
   274      1      4  0.424    6.5460000   14.9130000    8.3090000
   275      1      4  0.424    6.2620000   16.1600000    9.3230000
   276      1      3 -0.848    4.9850000   11.1950000    2.8500000
   277      1      4  0.424    4.8200000   12.0770000    3.2890000
   278      1      4  0.424    5.8330000   10.8000000    3.2030000
   279      1      3 -0.848   11.6570000    3.0350000    9.3170000
   280      1      4  0.424   11.8320000    2.8320000    8.3540000
   281      1      4  0.424   11.1830000    3.9120000    9.3920000
   282      1      3 -0.848   14.9340000    6.0430000    5.6490000
   283      1      4  0.424   14.6150000    6.5080000    4.8240000
   284      1      4  0.424   15.4440000    5.2220000    5.3930000
   285      1      3 -0.848   13.1560000    2.6110000   14.3080000
   286      1      4  0.424   14.0800000    2.5670000   13.9310000
   287      1      4  0.424   12.6280000    3.3020000   13.8160000
   288      1      3 -0.848   10.0170000    5.4260000   18.0220000
   289      1      4  0.424    9.4300000    4.8370000   17.4670000
   290      1      4  0.424   10.6250000    5.9480000   17.4240000
   291      1      3 -0.848    8.6310000    5.4860000    8.2230000
   292      1      4  0.424    7.6860000    5.1630000    8.2540000
   293      1      4  0.424    8.9020000    5.6320000    7.2720000
   294      1      3 -0.848   13.6370000    1.2060000    7.3210000
   295      1      4  0.424   13.8690000    2.1780000    7.3440000
   296      1      4  0.424   12.9870000    1.0010000    8.0530000
   297      1      3 -0.848    9.6250000   14.2280000    9.8660000
   298      1      4  0.424    8.7790000   14.6420000   10.2000000
   299      1      4  0.424   10.0730000   14.8530000    9.2280000
   300      1      3 -0.848   13.6340000    1.0000000    4.6590000
   301      1      4  0.424   13.6320000    1.3780000    3.7340000
   302      1      4  0.424   12.7020000    0.9950000    5.0190000
   303      1      3 -0.848    1.1560000   10.5170000    8.7680000
   304      1      4  0.424    1.2880000   11.3730000    8.2700000
   305      1      4  0.424    1.0050000    9.7730000    8.1170000
   306      1      3 -0.848   15.2220000    1.2030000   15.5770000
   307      1      4  0.424   15.5330000    1.0200000   14.6450000
   308      1      4  0.424   14.2250000    1.1540000   15.6110000
   309      1      3 -0.848   14.1290000   13.8830000    6.3160000
   310      1      4  0.424   13.5190000   14.0930000    7.0780000
   311      1      4  0.424   14.1790000   12.8920000    6.1930000
   312      1      3 -0.848    3.7790000    7.0070000   10.7400000
   313      1      4  0.424    4.7060000    7.1390000   11.0880000
   314      1      4  0.424    3.3650000    6.2150000   11.1880000
   315      1      3 -0.848   18.9540000   15.2200000   11.1460000
   316      1      4  0.424   19.3800000   16.1180000   11.2450000
   317      1      4  0.424   19.0620000   14.7040000   11.9950000
   318      1      3 -0.848   18.5600000   18.6440000    1.6100000
   319      1      4  0.424   17.7920000   19.2300000    1.8670000
   320      1      4  0.424   18.2310000   17.8970000    1.0340000
   321      1      3 -0.848   10.0850000   19.0130000    7.2890000
   322      1      4  0.424   10.3590000   19.8340000    7.7880000
   323      1      4  0.424    9.0920000   18.9100000    7.3370000
   324      1      3 -0.848   13.8560000   11.7450000    4.3450000
   325      1      4  0.424   13.5030000   11.7010000    3.4110000
   326      1      4  0.424   14.8450000   11.8850000    4.3200000
   327      1      3 -0.848   13.4410000    7.4880000   12.9530000
   328      1      4  0.424   12.8510000    8.2880000   13.0590000
   329      1      4  0.424   13.0220000    6.8490000   12.3080000
   330      1      3 -0.848   13.2420000    8.9520000    8.8960000
   331      1      4  0.424   12.7420000    9.3550000    9.6620000
   332      1      4  0.424   12.6980000    8.2160000    8.4940000
   333      1      3 -0.848   14.6260000    3.9060000   19.2780000
   334      1      4  0.424   15.1700000    4.7410000   19.3550000
   335      1      4  0.424   14.2780000    3.8200000   18.3450000
   336      1      3 -0.848    5.6630000    4.9030000    7.1800000
   337      1      4  0.424    4.9330000    4.3660000    6.7570000
   338      1      4  0.424    6.3640000    5.1070000    6.4980000
   339      1      3 -0.848    3.7460000   19.1460000   10.7980000
   340      1      4  0.424    4.0680000   19.8540000   11.4240000
   341      1      4  0.424    2.8440000   18.8280000   11.0890000
   342      1      3 -0.848   17.5010000   16.5020000   12.3230000
   343      1      4  0.424   17.6910000   15.9770000   13.1520000
   344      1      4  0.424   16.7300000   16.0900000   11.8380000
   345      1      3 -0.848    1.1480000   10.9830000   18.8040000
   346      1      4  0.424    1.4870000   11.5560000   18.0590000
   347      1      4  0.424    1.8290000   10.2840000   19.0230000
   348      1      3 -0.848   19.0440000    3.3810000    4.2250000
   349      1      4  0.424   18.2550000    3.0950000    3.6820000
   350      1      4  0.424   19.8050000    3.6000000    3.6160000
   351      1      3 -0.848    4.2990000   17.9850000    1.7790000
   352      1      4  0.424    4.1540000   17.9650000    2.7680000
   353      1      4  0.424    4.9490000   18.7090000    1.5520000
   354      1      3 -0.848   11.4310000   16.2510000    1.6820000
   355      1      4  0.424   11.3730000   16.1910000    2.6780000
   356      1      4  0.424   11.0780000   17.1370000    1.3810000
   357      1      3 -0.848   18.6130000    1.7900000   13.7320000
   358      1      4  0.424   17.8920000    2.4190000   14.0200000
   359      1      4  0.424   18.6070000    1.7090000   12.7360000
   360      1      3 -0.848    3.4890000    4.4010000   17.2910000
   361      1      4  0.424    2.8760000    4.6310000   16.5360000
   362      1      4  0.424    3.1840000    4.8650000   18.1220000
   363      1      3 -0.848    9.7110000   13.3700000   16.9680000
   364      1      4  0.424    9.3790000   12.5800000   17.4820000
   365      1      4  0.424   10.5640000   13.1320000   16.5050000
   366      1      3 -0.848   10.6690000    6.5120000    4.5130000
   367      1      4  0.424   11.5400000    6.0320000    4.4170000
   368      1      4  0.424   10.3480000    6.4340000    5.4560000
   369      1      3 -0.848   11.5570000   16.8220000    4.8090000
   370      1      4  0.424   11.7280000   17.1930000    5.7210000
   371      1      4  0.424   10.5720000   16.7150000    4.6720000
   372      1      3 -0.848    5.7430000    9.5810000   12.6340000
   373      1      4  0.424    5.9910000   10.4300000   13.0990000
   374      1      4  0.424    5.5770000    9.7670000   11.6670000
   375      1      3 -0.848   11.5860000   19.0010000   15.1620000
   376      1      4  0.424   11.2670000   19.8540000   15.5760000
   377      1      4  0.424   11.9370000   19.1870000   14.2450000
   378      1      3 -0.848    6.6400000   18.0240000   10.4960000
   379      1      4  0.424    6.9400000   17.2800000   11.0910000
   380      1      4  0.424    6.2430000   18.7550000   11.0500000
   381      1      3 -0.848    2.6640000   19.1270000   16.0940000
   382      1      4  0.424    3.0120000   18.4420000   15.4550000
   383      1      4  0.424    1.7610000   19.4320000   15.7940000
   384      1      3 -0.848    8.4980000    7.8560000   19.2800000
   385      1      4  0.424    8.7260000    7.0730000   19.8570000
   386      1      4  0.424    8.2710000    8.6400000   19.8570000
   387      1      3 -0.848    7.9540000   11.1300000    3.7100000
   388      1      4  0.424    8.9250000   11.3340000    3.5950000
   389      1      4  0.424    7.8330000   10.1460000    3.8370000
   390      1      3 -0.848    4.5260000    1.4290000   12.3350000
   391      1      4  0.424    3.7230000    0.9990000   12.7450000
   392      1      4  0.424    5.3490000    1.1170000   12.8070000
   393      1      3 -0.848   19.3410000    6.4820000    4.8420000
   394      1      4  0.424   18.3450000    6.4400000    4.9200000
   395      1      4  0.424   19.6080000    6.3270000    3.8920000
   396      1      3 -0.848    4.4250000    0.9960000    4.2740000
   397      1      4  0.424    5.3140000    1.0810000    3.8250000
   398      1      4  0.424    3.7620000    1.5880000    3.8170000
   399      1      3 -0.848   12.2170000    7.5080000    5.8910000
   400      1      4  0.424   12.5090000    7.9120000    5.0250000
   401      1      4  0.424   12.7800000    6.7060000    6.0900000
   402      1      3 -0.848    9.1800000   16.2880000    2.9300000
   403      1      4  0.424    9.4520000   17.2470000    2.8560000
   404      1      4  0.424    9.2970000   15.8390000    2.0450000
   405      1      3 -0.848   15.1670000    3.7400000   10.3690000
   406      1      4  0.424   14.4210000    4.0940000    9.8060000
   407      1      4  0.424   15.8560000    3.3170000    9.7820000
   408      1      3 -0.848    9.7040000    3.3260000   19.8690000
   409      1      4  0.424   10.1530000    2.8120000   19.1380000
   410      1      4  0.424    9.0800000    3.9960000   19.4690000
   411      1      3 -0.848    9.1660000    3.7780000    5.8150000
   412      1      4  0.424   10.0110000    3.9990000    6.3020000
   413      1      4  0.424    8.4290000    3.6370000    6.4750000
   414      1      3 -0.848    1.5720000   14.6350000   13.3670000
   415      1      4  0.424    0.9990000   15.4480000   13.4640000
   416      1      4  0.424    2.3970000   14.7410000   13.9200000
   417      1      3 -0.848   11.5480000    1.7180000   17.8380000
   418      1      4  0.424   11.1690000    1.0000000   18.4200000
   419      1      4  0.424   12.3730000    1.3800000   17.3870000
   420      1      3 -0.848    8.0210000   11.3160000   15.5860000
   421      1      4  0.424    8.4760000   10.4430000   15.4120000
   422      1      4  0.424    7.5210000   11.6000000   14.7680000
   423      1      3 -0.848   19.8630000    7.2820000   17.0510000
   424      1      4  0.424   19.1530000    7.6500000   17.6490000
   425      1      4  0.424   19.5370000    6.4390000   16.6250000
   426      1      3 -0.848    8.7430000    7.7840000   17.0960000
   427      1      4  0.424    8.5150000    6.8130000   17.1650000
   428      1      4  0.424    9.6760000    7.9310000   17.4250000
   429      1      3 -0.848    5.5010000   16.6540000    6.1610000
   430      1      4  0.424    4.9410000   15.8830000    6.4590000
   431      1      4  0.424    5.6570000   17.2710000    6.9320000
   432      1      3 -0.848    4.8560000    6.1350000    0.9790000
   433      1      4  0.424    4.1930000    6.5490000    1.6020000
   434      1      4  0.424    5.5020000    5.5790000    1.5010000
   435      1      3 -0.848   19.8600000   11.2500000   12.8520000
   436      1      4  0.424   19.4440000   12.0740000   13.2360000
   437      1      4  0.424   19.4770000   10.4440000   13.3010000
   438      1      3 -0.848   12.2120000   13.4140000    5.3450000
   439      1      4  0.424   11.9850000   12.6760000    5.9790000
   440      1      4  0.424   12.1100000   13.0900000    4.4050000
   441      1      3 -0.848   12.6660000   10.2770000   14.6220000
   442      1      4  0.424   12.8780000    9.3660000   14.9740000
   443      1      4  0.424   13.4520000   10.6290000   14.1130000