LAMMPS (20 Apr 2018)
units real
atom_style full

dimension 3
boundary p p p

bond_style hybrid harmonic
angle_style hybrid harmonic
dihedral_style hybrid charmm multi/harmonic
special_bonds lj 0.0 0.0 0.5 coul 0.0 0.0 0.83333333

read_data lammps.data
  orthogonal box = (1.48626 1 -2.1312) to (71.4863 71 67.8688)
  1 by 1 by 1 MPI processor grid
  reading atoms ...
  22 atoms
  reading velocities ...
  22 velocities
  scanning bonds ...
  3 = max bonds/atom
  scanning angles ...
  6 = max angles/atom
  scanning dihedrals ...
  21 = max dihedrals/atom
  reading bonds ...
  21 bonds
  reading angles ...
  36 angles
  reading dihedrals ...
  67 dihedrals
  4 = max # of 1-2 neighbors
  7 = max # of 1-3 neighbors
  13 = max # of 1-4 neighbors
  16 = max # of special neighbors

pair_style lj/cut/coul/long 9.0 9.0
pair_modify tail yes
kspace_style pppm 1e-8

pair_coeff 1 1   0.0157000   2.6495328
pair_coeff 2 2   0.1094000   3.3996695
pair_coeff 3 3   0.0860000   3.3996695
pair_coeff 4 4   0.2100000   2.9599219
pair_coeff 5 5   0.1700000   3.2499985
pair_coeff 6 6   0.0157000   1.0690785
pair_coeff 7 7   0.1094000   3.3996695
pair_coeff 8 8   0.0157000   2.4713530

pair_modify mix arithmetic

thermo_style custom ebond eangle edihed eimp epair evdwl ecoul elong etail pe

fix             1 all mdi

mdi
MDI command: <NATOMS:
MDI command: EXIT:
Total wall time: 0:00:00
