Structure file for LAMMPS generated by a MolSSI flowchart
      2 atoms
         1 atom types
-400 400.0 xlo xhi
-400 400.0 ylo yhi
-400 400.0 zlo zhi

Atoms

     1      1      1  0.000     5.0 0.0 0.0 
     2      1      1  0.000     1.0 0.0 0.0 

Masses

     1 39.94400 # ar

Pair Coeffs

     1 0.2 3.88 # ar --> ar
