# Structure file for LAMMPS generated by a MolSSI flowchart
      2 atoms
      1 atom types
0 400.0 xlo xhi
0 400.0 ylo yhi
0 400.0 zlo zhi

Atoms

     1      1      1  0.000     1.0 200.0 200.0 
     2      1      1  0.000     5.0 200.0 200.0 

Masses

     1 39.94400 # ar

Pair Coeffs

     1 0.2 3.88 # ar --> ar
